HEADER
"PSFversion" "1.00"
"simulator" "spectre"
"version" "17.1.0.238.isr4"
"date" "1:19:03 PM, Sat Feb 15, 2020"
"design" "// Generated for: spectre"
"analysis type" "info"
"analysis name" "designParamVals"
"analysis description" "Circuit Information"
"xVecSorted" "unknown"
"tolerance.relative" 0.00100000
TYPE
"top-level" STRUCT(
"temp" FLOAT DOUBLE
"tnom" FLOAT DOUBLE
"time" FLOAT DOUBLE
"vs" FLOAT DOUBLE
"deltox_25" FLOAT DOUBLE
"delvthn_25" FLOAT DOUBLE
"delvthp_25" FLOAT DOUBLE
"delxl_25" FLOAT DOUBLE
"delxw_25" FLOAT DOUBLE
"cscalejn" FLOAT DOUBLE
"cscalego" FLOAT DOUBLE
"toxn" FLOAT DOUBLE
"toxn_std" FLOAT DOUBLE
"dvthn" FLOAT DOUBLE
"dvthn_std" FLOAT DOUBLE
"dlxn" FLOAT DOUBLE
"dlxn_std" FLOAT DOUBLE
"dxwn" FLOAT DOUBLE
"dxwn_std" FLOAT DOUBLE
"cjn" FLOAT DOUBLE
"cjn_std" FLOAT DOUBLE
"cjswn" FLOAT DOUBLE
"cjswn_std" FLOAT DOUBLE
"cjswgn" FLOAT DOUBLE
"cjswgn_std" FLOAT DOUBLE
"cgon" FLOAT DOUBLE
"cgon_std" FLOAT DOUBLE
"hdifn" FLOAT DOUBLE
"hdifn_std" FLOAT DOUBLE
"mtoxn_std" FLOAT DOUBLE
"mdvthn_std" FLOAT DOUBLE
"mdlxn_std" FLOAT DOUBLE
"mdxwn_std" FLOAT DOUBLE
"mcjn_std" FLOAT DOUBLE
"mcjswn_std" FLOAT DOUBLE
"mcjswgn_std" FLOAT DOUBLE
"mcgon_std" FLOAT DOUBLE
"mhdifn_std" FLOAT DOUBLE
"toxp" FLOAT DOUBLE
"toxp_std" FLOAT DOUBLE
"dvthp" FLOAT DOUBLE
"dvthp_std" FLOAT DOUBLE
"dxlp" FLOAT DOUBLE
"dxlp_std" FLOAT DOUBLE
"dxwp" FLOAT DOUBLE
"dxwp_std" FLOAT DOUBLE
"cjp" FLOAT DOUBLE
"cjp_std" FLOAT DOUBLE
"cjswp" FLOAT DOUBLE
"cjswp_std" FLOAT DOUBLE
"cjswgp" FLOAT DOUBLE
"cjswgp_std" FLOAT DOUBLE
"cgop" FLOAT DOUBLE
"cgop_std" FLOAT DOUBLE
"hdifp" FLOAT DOUBLE
"hdifp_std" FLOAT DOUBLE
"mtoxp_std" FLOAT DOUBLE
"mdvthp_std" FLOAT DOUBLE
"mdxlp_std" FLOAT DOUBLE
"mdxwp_std" FLOAT DOUBLE
"mcjp_std" FLOAT DOUBLE
"mcjswp_std" FLOAT DOUBLE
"mcjswgp_std" FLOAT DOUBLE
"mcgop_std" FLOAT DOUBLE
"mhdifp_std" FLOAT DOUBLE
"rshnplus" FLOAT DOUBLE
"rshnplus_std" FLOAT DOUBLE
"mrshnplus_std" FLOAT DOUBLE
"rshpplus" FLOAT DOUBLE
"rshpplus_std" FLOAT DOUBLE
"mrshpplus_std" FLOAT DOUBLE
"rshlowp" FLOAT DOUBLE
"rshlowp_std" FLOAT DOUBLE
"mrshlowp_std" FLOAT DOUBLE
"cjlowp" FLOAT DOUBLE
"cjlowp_std" FLOAT DOUBLE
"mcjlowp_std" FLOAT DOUBLE
"cjswlowp" FLOAT DOUBLE
"cjswlowp_std" FLOAT DOUBLE
"mcjswlowp_std" FLOAT DOUBLE
"rshhip" FLOAT DOUBLE
"rshhip_std" FLOAT DOUBLE
"mrshhip_std" FLOAT DOUBLE
"cjhip" FLOAT DOUBLE
"cjhip_std" FLOAT DOUBLE
"mcjhip_std" FLOAT DOUBLE
"cjswhip" FLOAT DOUBLE
"cjswhip_std" FLOAT DOUBLE
"mcjswhip_std" FLOAT DOUBLE
"rshnwell" FLOAT DOUBLE
"rshnwell_std" FLOAT DOUBLE
"mrshnwell_std" FLOAT DOUBLE
"rshm1" FLOAT DOUBLE
"rshm1_std" FLOAT DOUBLE
"mrshm1_std" FLOAT DOUBLE
"rshm2" FLOAT DOUBLE
"rshm2_std" FLOAT DOUBLE
"mrshm2_std" FLOAT DOUBLE
"rshm3" FLOAT DOUBLE
"rshm3_std" FLOAT DOUBLE
"mrshm3_std" FLOAT DOUBLE
"rshm4" FLOAT DOUBLE
"rshm4_std" FLOAT DOUBLE
"mrshm4_std" FLOAT DOUBLE
"rshm5" FLOAT DOUBLE
"rshm5_std" FLOAT DOUBLE
"mrshm5_std" FLOAT DOUBLE
"rshm6" FLOAT DOUBLE
"rshm6_std" FLOAT DOUBLE
"mrshm6_std" FLOAT DOUBLE
"cjmim" FLOAT DOUBLE
"cjmim_std" FLOAT DOUBLE
"cjswmim" FLOAT DOUBLE
"cjswmim_std" FLOAT DOUBLE
"mcjmim_std" FLOAT DOUBLE
"mcjswmim_std" FLOAT DOUBLE
"sisp" FLOAT DOUBLE
"sisp_std" FLOAT DOUBLE
"bvp" FLOAT DOUBLE
"bvp_std" FLOAT DOUBLE
"cjpx" FLOAT DOUBLE
"cjpx_std" FLOAT DOUBLE
"cjswpx" FLOAT DOUBLE
"cjswpx_std" FLOAT DOUBLE
"sisnw" FLOAT DOUBLE
"sisnw_std" FLOAT DOUBLE
"bvnw" FLOAT DOUBLE
"bvnw_std" FLOAT DOUBLE
"cjnw" FLOAT DOUBLE
"cjnw_std" FLOAT DOUBLE
"cjswnw" FLOAT DOUBLE
"cjswnw_std" FLOAT DOUBLE
"msisp_std" FLOAT DOUBLE
"mbvp_std" FLOAT DOUBLE
"mcjpx_std" FLOAT DOUBLE
"mcjswpx_std" FLOAT DOUBLE
"msisnw_std" FLOAT DOUBLE
"mbvnw_std" FLOAT DOUBLE
"mcjnw_std" FLOAT DOUBLE
"mcjswnw_std" FLOAT DOUBLE
) PROP(
"key" "parameters"
)
VALUE
"top-level" "top-level" (
2.700000000000000e+01
2.700000000000000e+01
0.000000000000000e+00
1.000000000000000e+00
0.000000000000000e+00
0.000000000000000e+00
0.000000000000000e+00
0.000000000000000e+00
0.000000000000000e+00
1.000000000000000e+00
1.000000000000000e+00
4.000000000000000e-09
2.000000000000000e-10
0.000000000000000e+00
4.000000000000000e-02
0.000000000000000e+00
2.000000000000000e-09
0.000000000000000e+00
2.000000000000000e-09
1.000000000000000e-03
1.500000000000000e-04
2.000000000000000e-10
3.000000000000000e-11
3.300000000000000e-10
5.000000000000000e-11
3.700000000000000e-10
6.000000000000000e-11
2.000000000000000e-07
2.000000000000000e-08
2.000000000000000e-11
4.000000000000000e-03
2.000000000000000e-10
2.000000000000000e-10
1.500000000000000e-05
3.000000000000000e-12
5.000000000000000e-12
6.000000000000000e-12
2.000000000000000e-09
4.000000000000000e-09
2.000000000000000e-10
0.000000000000000e+00
4.000000000000000e-02
0.000000000000000e+00
2.000000000000000e-09
0.000000000000000e+00
2.000000000000000e-09
1.100000000000000e-03
1.700000000000000e-04
2.500000000000000e-10
5.700000000000000e-11
4.200000000000000e-10
6.300000000000000e-11
3.300000000000000e-10
5.000000000000000e-11
2.000000000000000e-07
2.000000000000000e-08
2.000000000000000e-11
4.000000000000000e-03
2.000000000000000e-10
2.000000000000000e-10
1.700000000000000e-05
5.700000000000000e-12
6.300000000000000e-12
5.000000000000000e-12
2.000000000000000e-09
5.000000000000000e+01
5.000000000000000e+00
5.000000000000000e-01
1.580000000000000e+02
1.600000000000000e+01
1.600000000000000e+00
7.500000000000000e+00
7.500000000000000e-01
7.500000000000000e-02
1.330000000000000e-03
1.330000000000000e-04
1.330000000000000e-05
3.150000000000000e-10
3.150000000000000e-11
3.150000000000000e-12
3.520000000000000e+02
3.500000000000000e+01
3.500000000000000e+00
1.330000000000000e-03
1.330000000000000e-04
1.330000000000000e-05
3.150000000000000e-10
3.150000000000000e-11
3.150000000000000e-12
4.150000000000000e+02
4.200000000000000e+01
4.200000000000000e+00
1.000000000000000e-02
1.000000000000000e-03
1.000000000000000e-04
1.000000000000000e-02
1.000000000000000e-03
1.000000000000000e-04
1.000000000000000e-02
1.000000000000000e-03
1.000000000000000e-04
1.000000000000000e-02
1.000000000000000e-03
1.000000000000000e-04
1.000000000000000e-02
1.000000000000000e-03
1.000000000000000e-04
1.000000000000000e-02
1.000000000000000e-03
1.000000000000000e-04
1.000000000000000e-03
1.000000000000000e-04
1.000000000000000e-10
9.999999999999999e-12
1.000000000000000e-05
1.000000000000000e-12
2.500000000000000e-07
2.500000000000000e-08
1.010000000000000e+01
1.000000000000000e+00
1.121000000000000e-03
1.700000000000000e-04
2.241000000000000e-10
3.400000000000000e-11
6.500000000000000e-07
6.500000000000000e-08
1.475000000000000e+01
1.475000000000000e+00
1.337566000000000e-04
2.000000000000000e-05
5.333577000000000e-10
8.000000000000000e-11
2.500000000000000e-09
1.000000000000000e-01
1.700000000000000e-05
3.400000000000000e-12
6.500000000000000e-09
1.475000000000000e-01
2.000000000000000e-06
8.000000000000000e-12
)
END
