HEADER
"PSFversion" "1.00"
"NM0n" "gpdk180_nmos_spectre"
"PM0n" "gpdk180_pmos_spectre"
