HEADER
"PSFversion" "1.00"
"VDD!v" "VDD!v"
"GND!v" "GND!v"
