HEADER
"PSFversion" "1.00"
"design" "(\"inverter\" \"inv\" \"schematic\" \"\")"
"simulator" "spectre"
"temperature" "27"
"host" ""
"date" "Feb 14 13:01:03 2020"
"title" ""
"analysisList" "()"
END
