HEADER
"PSFversion" "1.00"
"simulator" "spectre"
"version" "17.1.0.238.isr4"
"date" "1:01:03 PM, Fri Feb 14, 2020"
"design" "// Generated for: spectre"
"analysis type" "info.subckts"
"analysis name" "subckts"
"analysis description" "Circuit Information"
"xVecSorted" "unknown"
"tolerance.relative" 0.00100000
TYPE
"subckt" STRUCT(
"subckt_params" STRING *
"subckt_terminals" STRING *
"subckt_instances" STRING *
) PROP(
"key" "sub"
)
VALUE
"gpdk090_nmos2v_nat" "subckt" (
""
""
""
)
"gpdk090_pnp" "subckt" (
""
""
""
)
"gpdk090_resnsnpoly" "subckt" (
""
""
""
)
"nmos1" "subckt" (
"ad as pd region w ps l"
"D G S B"
"NM0"
)
"xjvar_nf36" "subckt" (
""
""
""
)
"gpdk090_resm8" "subckt" (
""
""
""
)
"gpdk090_ressppoly" "subckt" (
""
""
""
)
"gpdk180_m4res" "subckt" (
""
""
""
)
"gpdk090_ndio_na25" "subckt" (
""
""
""
)
"gpdk090_mimcap" "subckt" (
""
""
""
)
"gpdk180_polyhres" "subckt" (
""
""
""
)
"gpdk090_nmos1v_hvt" "subckt" (
""
""
""
)
"gpdk090_vpnp5" "subckt" (
""
""
""
)
"gpdk090_ressnpoly" "subckt" (
""
""
""
)
"gpdk090_pdio" "subckt" (
""
""
""
)
"gpdk090_vpnp" "subckt" (
""
""
""
)
"gpdk090_npn" "subckt" (
""
""
""
)
"gpdk090_vpnp2" "subckt" (
""
""
""
)
"pmos_rf" "subckt" (
""
""
""
)
"mimcap" "subckt" (
""
""
""
)
"gpdk090_ndio_hvt" "subckt" (
""
""
""
)
"gpdk090_resm5" "subckt" (
""
""
""
)
"gpdk180_m2res" "subckt" (
""
""
""
)
"gpdk090_resm1" "subckt" (
""
""
""
)
"gpdk180_pplusres" "subckt" (
""
""
""
)
"gpdk090_ressndiff" "subckt" (
""
""
""
)
"xjvar_w40" "subckt" (
""
""
""
)
"gpdk090_resm3" "subckt" (
""
""
""
)
"gpdk180_m3res" "subckt" (
""
""
""
)
"gpdk090_resm7" "subckt" (
""
""
""
)
"nmos_rf" "subckt" (
""
""
""
)
"gpdk090_resnspdiff" "subckt" (
""
""
""
)
"gpdk090_pdio_25" "subckt" (
""
""
""
)
"gpdk090_nmos1v_nat" "subckt" (
""
""
""
)
"gpdk180_m6res" "subckt" (
""
""
""
)
"gpdk090_resm2" "subckt" (
""
""
""
)
"gpdk090_resm4" "subckt" (
""
""
""
)
"gpdk090_resm9" "subckt" (
""
""
""
)
"gpdk090_resspdiff" "subckt" (
""
""
""
)
"gpdk090_pdio_hvt" "subckt" (
""
""
""
)
"gpdk090_nmos2v" "subckt" (
""
""
""
)
"gpdk090_pmos1v" "subckt" (
""
""
""
)
"gpdk180_nwellres" "subckt" (
""
""
""
)
"gpdk090_resnsndiff" "subckt" (
""
""
""
)
"gpdk090_ndio_na" "subckt" (
""
""
""
)
"gpdk180_m1res" "subckt" (
""
""
""
)
"gpdk090_pmos2v" "subckt" (
""
""
""
)
"gpdk180_nplusres" "subckt" (
""
""
""
)
"gpdk090_nmos1v_iso" "subckt" (
""
""
""
)
"cmodel" "subckt" (
""
""
""
)
"gpdk090_ndio" "subckt" (
""
""
""
)
"gpdk090_vpnp10" "subckt" (
""
""
""
)
"gpdk180_m5res" "subckt" (
""
""
""
)
"gpdk090_ndio_25" "subckt" (
""
""
""
)
"gpdk090_nwdio" "subckt" (
""
""
""
)
"gpdk180_polyres" "subckt" (
""
""
""
)
"pmos1" "subckt" (
"ad as pd region w ps l"
"D G S B"
"PM0"
)
"snacapacitor" "subckt" (
""
""
""
)
"gpdk090_resnsppoly" "subckt" (
""
""
""
)
"gpdk090_resm6" "subckt" (
""
""
""
)
"gpdk090_pmos1v_hvt" "subckt" (
""
""
""
)
"gpdk090_nmos1v" "subckt" (
""
""
""
)
END
