HEADER
"PSFversion" "1.00"
"Time Stamp" "Feb 14 13:01:03 2020"
TYPE
"variable" STRUCT(
"value" FLOAT DOUBLE
) PROP( "key" "element" )
VALUE
"temp" "variable" ( 27 ) PROP( )
END
