HEADER
"PSFversion" "1.00"
"Time Stamp" "Feb 17 19:12:10 2020"
TYPE
"variable" STRUCT(
"value" FLOAT DOUBLE
) PROP( "key" "element" )
VALUE
"vs" "variable" ( 1 ) PROP( )
"temp" "variable" ( 27 ) PROP( )
END
